Siesta Version  : v4.0.2
Architecture    : intel-mkl
Compiler version: ifort (IFORT) 17.0.8 20180907
Compiler flags  : mpiifort  -w -mp1 -xSSE4.2 -ip -zero -O2 -DMPI -Vaxlib -lpthread 
PP flags        :  -O2 -zero -mp1 -xSSE4.2 -ipo -Vaxlib  
PARALLEL version

* Running on    4 nodes in parallel
>> Start of run:   1-AUG-2019  16:08:34

                           ***********************       
                           *  WELCOME TO SIESTA  *       
                           ***********************       

reinit: Reading from standard input
************************** Dump of input data file ****************************
SystemName transition
SystemLabel transition
%include struct.fdf
%block kgrid_Monkhorst_Pack
 4    0    0   0.0
 0    4    0   0.0
 0    0    1   0.0
%endblock kgrid_Monkhorst_Pack
#%block GeometryConstraints
#cellangle alpha beta gamma
#%endblock GeometryConstraints
MeshCutoff            300  Ry
MD.VariableCell       F
PAO.BasisSize         DZP
PAO.EnergyShift       0.01  Ry
XC.functional         GGA
XC.authors            PBE
ElectronicTemperature     50 meV
MD.TypeOfRun          CG
MD.NumCGsteps         0
MD.MaxForceTol        0.001  eV/Ang
MD.FinalTimeStep      1
MaxSCFIterations      600
DM.MixingWeight       0.8
DM.NumberPulay        8
DM.Tolerance          1.d-4
SolutionMethod       diagon
ParallelOverK         .true.
UseSaveData           .true.
MD.UseSaveXV          .true.
DM.UseSaveDM          .true.
MD.UseSaveCG          .true.
#==================================================
#     BAND & PDOS
#=================================================
%block ProjectedDensityOfStates
-7.46170618 -1.46170618     0.030 2000 eV
%endblock ProjectedDensityOfStates
%block PDOS.kgrid_Monkhorst_Pack
100    0     0   0.0
 0    100    0   0.0
 0     0     1   0.0
%endblock PDOS.kgrid_Monkhorst_Pack
BandLinesScale    ReciprocalLatticeVectors
%block BandLines
1     0.00000    0.00000    0.00000    \Gamma
150   0.66667    0.33333    0.00000    K
90    0.50000    0.00000    0.00000    M
130   0.00000    0.00000    0.00000    \Gamma
%endblock BandLines
WFS.Write.For.Bands    T
#==================================================
#     Charge & Properties
#=================================================
#SaveDeltaRho   T
#==================================================
#     Theromelectic Properties
#=================================================
%block BT.kgrid_Monkhorst_Pack
125    0     0   0.0
 0    125    0   0.0
 0     0     1   0.0
%endblock BT.kgrid_Monkhorst_Pack
BT.Symprec 0.01
************************** End of input data file *****************************

reinit: -----------------------------------------------------------------------
reinit: System Name: transition
reinit: -----------------------------------------------------------------------
reinit: System Label: transition                                                  
reinit: -----------------------------------------------------------------------

initatom: Reading input for the pseudopotentials and atomic orbitals ----------
 Species number:            1  Label: P Atomic number:          15
 Species number:            2  Label: Ge Atomic number:          32
Ground state valence configuration:   3s02  3p03
Reading pseudopotential information in formatted form from P.psf

Valence configuration for pseudopotential generation:
3s( 2.00) rc: 1.83
3p( 3.00) rc: 1.83
3d( 0.00) rc: 1.83
4f( 0.00) rc: 1.83
Ground state valence configuration:   4s02  4p02
Reading pseudopotential information in formatted form from Ge.psf

Pseudopotential generated from a relativistic atomic calculation
There are spin-orbit pseudopotentials available
Spin-orbit interaction is not included in this calculation

Valence configuration for pseudopotential generation:
4s( 2.00) rc: 2.81
4p( 2.00) rc: 2.11
4d( 0.00) rc: 2.71
4f( 0.00) rc: 2.45
For P, standard SIESTA heuristics set lmxkb to 3
 (one more than the basis l, including polarization orbitals).
Use PS.lmax or PS.KBprojectors blocks to override.
For Ge, standard SIESTA heuristics set lmxkb to 3
 (one more than the basis l, including polarization orbitals).
Use PS.lmax or PS.KBprojectors blocks to override.

<basis_specs>
===============================================================================
P                    Z=  15    Mass=  30.970        Charge= 0.17977+309
Lmxo=1 Lmxkb= 3    BasisType=split      Semic=F
L=0  Nsemic=0  Cnfigmx=3
          n=1  nzeta=2  polorb=0
            splnorm:   0.15000    
               vcte:    0.0000    
               rinn:    0.0000    
               qcoe:    0.0000    
               qyuk:    0.0000    
               qwid:   0.10000E-01
                rcs:    0.0000      0.0000    
            lambdas:    1.0000      1.0000    
L=1  Nsemic=0  Cnfigmx=3
          n=1  nzeta=2  polorb=1
            splnorm:   0.15000    
               vcte:    0.0000    
               rinn:    0.0000    
               qcoe:    0.0000    
               qyuk:    0.0000    
               qwid:   0.10000E-01
                rcs:    0.0000      0.0000    
            lambdas:    1.0000      1.0000    
-------------------------------------------------------------------------------
L=0  Nkbl=1  erefs: 0.17977+309
L=1  Nkbl=1  erefs: 0.17977+309
L=2  Nkbl=1  erefs: 0.17977+309
L=3  Nkbl=1  erefs: 0.17977+309
===============================================================================
</basis_specs>

atom: Called for P                     (Z =  15)

read_vps: Pseudopotential generation method:
read_vps: ATM3      Troullier-Martins                       
Total valence charge:    5.00000

xc_check: Exchange-correlation functional:
xc_check: GGA Perdew, Burke & Ernzerhof 1996
V l=0 = -2*Zval/r beyond r=  2.4397
V l=1 = -2*Zval/r beyond r=  2.4397
V l=2 = -2*Zval/r beyond r=  2.4397
V l=3 = -2*Zval/r beyond r=  2.4397
All V_l potentials equal beyond r=  1.8073
This should be close to max(r_c) in ps generation
All pots = -2*Zval/r beyond r=  2.4397
Using large-core scheme for Vlocal

atom: Estimated core radius    2.43972

atom: Including non-local core corrections could be a good idea
atom: Maximum radius for 4*pi*r*r*local-pseudopot. charge    2.69632
atom: Maximum radius for r*vlocal+2*Zval:    2.47041
GHOST: No ghost state for L =  0
GHOST: No ghost state for L =  1
GHOST: No ghost state for L =  2
GHOST: No ghost state for L =  3

KBgen: Kleinman-Bylander projectors: 
   l= 0   rc=  1.876413   el= -1.021300   Ekb=  5.335550   kbcos=  0.315660
   l= 1   rc=  1.876413   el= -0.405549   Ekb=  1.786877   kbcos=  0.299449
   l= 2   rc=  1.876413   el=  0.002048   Ekb= -3.279916   kbcos= -0.053493
   l= 3   rc=  1.876413   el=  0.003178   Ekb= -0.980330   kbcos= -0.004709

KBgen: Total number of  Kleinman-Bylander projectors:   16
atom: -------------------------------------------------------------------------

atom: SANKEY-TYPE ORBITALS:
atom: Selected multiple-zeta basis: split     

SPLIT: Orbitals with angular momentum L= 0

SPLIT: Basis orbitals for state 3s

SPLIT: PAO cut-off radius determined from an
SPLIT: energy shift=  0.010000 Ry

   izeta = 1
                 lambda =    1.000000
                     rc =    4.913154
                 energy =   -1.012176
                kinetic =    0.684531
    potential(screened) =   -1.696708
       potential(ionic) =   -5.314509

   izeta = 2
                 rmatch =    3.923200
              splitnorm =    0.150000
                 energy =   -0.897399
                kinetic =    1.052872
    potential(screened) =   -1.950271
       potential(ionic) =   -5.732680

SPLIT: Orbitals with angular momentum L= 1

SPLIT: Basis orbitals for state 3p

SPLIT: PAO cut-off radius determined from an
SPLIT: energy shift=  0.010000 Ry

   izeta = 1
                 lambda =    1.000000
                     rc =    6.152896
                 energy =   -0.396509
                kinetic =    1.129011
    potential(screened) =   -1.525520
       potential(ionic) =   -4.851674

   izeta = 2
                 rmatch =    4.445590
              splitnorm =    0.150000
                 energy =   -0.288846
                kinetic =    1.632971
    potential(screened) =   -1.921817
       potential(ionic) =   -5.532745

POLgen: Perturbative polarization orbital with L=  2

POLgen: Polarization orbital for state 3p

   izeta = 1
                     rc =    6.152896
                 energy =    0.519541
                kinetic =    1.606505
    potential(screened) =   -1.086964
       potential(ionic) =   -4.092075
atom: Total number of Sankey-type orbitals: 13

atm_pop: Valence configuration (for local Pseudopot. screening):
 3s( 2.00)                                                            
 3p( 3.00)                                                            
Vna: chval, zval:    5.00000   5.00000

Vna:  Cut-off radius for the neutral-atom potential:   6.152896

atom: _________________________________________________________________________

<basis_specs>
===============================================================================
Ge                   Z=  32    Mass=  72.610        Charge= 0.17977+309
Lmxo=1 Lmxkb= 3    BasisType=split      Semic=F
L=0  Nsemic=0  Cnfigmx=4
          n=1  nzeta=2  polorb=0
            splnorm:   0.15000    
               vcte:    0.0000    
               rinn:    0.0000    
               qcoe:    0.0000    
               qyuk:    0.0000    
               qwid:   0.10000E-01
                rcs:    0.0000      0.0000    
            lambdas:    1.0000      1.0000    
L=1  Nsemic=0  Cnfigmx=4
          n=1  nzeta=2  polorb=1
            splnorm:   0.15000    
               vcte:    0.0000    
               rinn:    0.0000    
               qcoe:    0.0000    
               qyuk:    0.0000    
               qwid:   0.10000E-01
                rcs:    0.0000      0.0000    
            lambdas:    1.0000      1.0000    
-------------------------------------------------------------------------------
L=0  Nkbl=1  erefs: 0.17977+309
L=1  Nkbl=1  erefs: 0.17977+309
L=2  Nkbl=1  erefs: 0.17977+309
L=3  Nkbl=1  erefs: 0.17977+309
===============================================================================
</basis_specs>

atom: Called for Ge                    (Z =  32)

read_vps: Pseudopotential generation method:
read_vps: ATM3      Troullier-Martins                       
Total valence charge:    4.00000

xc_check: Exchange-correlation functional:
xc_check: GGA Perdew, Burke & Ernzerhof 1996
V l=0 = -2*Zval/r beyond r=  3.3093
V l=1 = -2*Zval/r beyond r=  3.3093
V l=2 = -2*Zval/r beyond r=  3.3093
V l=3 = -2*Zval/r beyond r=  3.3093
All V_l potentials equal beyond r=  2.7780
This should be close to max(r_c) in ps generation
All pots = -2*Zval/r beyond r=  3.3093

VLOCAL1: 99.0% of the norm of Vloc inside      5.625 Ry
VLOCAL1: 99.9% of the norm of Vloc inside     12.819 Ry
atom: Maximum radius for 4*pi*r*r*local-pseudopot. charge    3.30931
atom: Maximum radius for r*vlocal+2*Zval:    2.88417
GHOST: No ghost state for L =  0
GHOST: No ghost state for L =  1
GHOST: No ghost state for L =  2
GHOST: No ghost state for L =  3

KBgen: Kleinman-Bylander projectors: 
   l= 0   rc=  3.435772   el= -0.860281   Ekb=  2.253895   kbcos=  0.346706
   l= 1   rc=  3.797123   el= -0.286425   Ekb=  3.948998   kbcos=  0.081475
   l= 2   rc=  4.196478   el=  0.001966   Ekb=  0.640131   kbcos=  0.074523
   l= 3   rc=  4.411640   el=  0.003058   Ekb= -1.119155   kbcos= -0.012627

KBgen: Total number of  Kleinman-Bylander projectors:   16
atom: -------------------------------------------------------------------------

atom: SANKEY-TYPE ORBITALS:
atom: Selected multiple-zeta basis: split     

SPLIT: Orbitals with angular momentum L= 0

SPLIT: Basis orbitals for state 4s

SPLIT: PAO cut-off radius determined from an
SPLIT: energy shift=  0.010000 Ry

   izeta = 1
                 lambda =    1.000000
                     rc =    5.255364
                 energy =   -0.850149
                kinetic =    0.503784
    potential(screened) =   -1.353933
       potential(ionic) =   -3.838766

   izeta = 2
                 rmatch =    4.356837
              splitnorm =    0.150000
                 energy =   -0.762756
                kinetic =    0.731602
    potential(screened) =   -1.494358
       potential(ionic) =   -4.095989

SPLIT: Orbitals with angular momentum L= 1

SPLIT: Basis orbitals for state 4p

SPLIT: PAO cut-off radius determined from an
SPLIT: energy shift=  0.010000 Ry

   izeta = 1
                 lambda =    1.000000
                     rc =    7.094027
                 energy =   -0.277397
                kinetic =    0.776837
    potential(screened) =   -1.054234
       potential(ionic) =   -3.237146

   izeta = 2
                 rmatch =    5.321470
              splitnorm =    0.150000
                 energy =   -0.200106
                kinetic =    1.121672
    potential(screened) =   -1.321778
       potential(ionic) =   -3.691586

POLgen: Perturbative polarization orbital with L=  2

POLgen: Polarization orbital for state 4p

   izeta = 1
                     rc =    7.094027
                 energy =    0.355725
                kinetic =    1.134577
    potential(screened) =   -0.778852
       potential(ionic) =   -2.763244
atom: Total number of Sankey-type orbitals: 13

atm_pop: Valence configuration (for local Pseudopot. screening):
 4s( 2.00)                                                            
 4p( 2.00)                                                            
Vna: chval, zval:    4.00000   4.00000

Vna:  Cut-off radius for the neutral-atom potential:   7.094027

atom: _________________________________________________________________________

prinput: Basis input ----------------------------------------------------------

PAO.BasisType split     

%block ChemicalSpeciesLabel
    1   15 P                       # Species index, atomic number, species label
    2   32 Ge                      # Species index, atomic number, species label
%endblock ChemicalSpeciesLabel

%block PAO.Basis                 # Define Basis set
P                     2                    # Species label, number of l-shells
 n=3   0   2                         # n, l, Nzeta 
   4.913      3.923   
   1.000      1.000   
 n=3   1   2 P   1                   # n, l, Nzeta, Polarization, NzetaPol
   6.153      4.446   
   1.000      1.000   
Ge                    2                    # Species label, number of l-shells
 n=4   0   2                         # n, l, Nzeta 
   5.255      4.357   
   1.000      1.000   
 n=4   1   2 P   1                   # n, l, Nzeta, Polarization, NzetaPol
   7.094      5.321   
   1.000      1.000   
%endblock PAO.Basis

prinput: ----------------------------------------------------------------------

coor:   Atomic-coordinates input format  =     Fractional

ioxv: Reading coordinates and velocities from file
! Info in XV file prevails over previous structure input

siesta: Atomic coordinates (Bohr) and species
siesta:      3.34313   1.93385   8.39859  2        1
siesta:      6.56915   3.81703  11.35750  1        2
siesta:      6.54656   7.75044   9.95178  1        3
siesta:      9.94399   9.73270  11.35983  1        4
siesta:     13.35663   7.78546   9.93415  1        5
siesta:     13.37950   3.85624  11.36153  1        6
siesta:      9.98558   1.87153   9.94383  1        7
siesta:     16.57154   9.66959  12.90425  2        8

siesta: System type = slab      

initatomlists: Number of atoms, orbitals, and projectors:      8   104   128

siesta: ******************** Simulation parameters ****************************
siesta:
siesta: The following are some of the parameters of the simulation.
siesta: A complete list of the parameters used, including default values,
siesta: can be found in file out.fdf
siesta:
redata: Non-Collinear-spin run           =     F
redata: SpinPolarized (Up/Down) run      =     F
redata: Number of spin components        =     1
redata: Long output                      =     F
redata: Number of Atomic Species         =        2
redata: Charge density info will appear in .RHO file
redata: Write Mulliken Pop.              =     NO
redata: Matel table size (NRTAB)         =     1024
redata: Mesh Cutoff                      =   300.0000 Ry
redata: Net charge of the system         =     0.0000 |e|
redata: Min. number of SCF Iter          =        0
redata: Max. number of SCF Iter          =      600
redata: Mix DM or H after convergence    =     F
redata: Recompute H after scf cycle      =     F
redata: Performing Pulay mixing using    =     8 iterations
redata: Mix DM in first SCF step ?       =     F
redata: Write Pulay info on disk?        =     F
redata: Discard 1st Pulay DM after  kick =     F
redata: New DM Mixing Weight             =     0.8000
redata: New DM Occupancy tolerance       = 0.000000000001
redata: No kicks to SCF
redata: DM Mixing Weight for Kicks       =     0.5000
redata: DM Tolerance for SCF             =     0.000100
redata: Require (free) Energy convergence in SCF =     F
redata: DM (free)Energy tolerance for SCF =     0.000010 eV
redata: Require Harris convergence for SCF =     F
redata: DM Harris energy tolerance for SCF =     0.000010 eV
redata: Using Saved Data (generic)   =     T
redata: Use continuation files for DM    =     T
redata: Neglect nonoverlap interactions  =     F
redata: Method of Calculation            =     Diagonalization
redata: Divide and Conquer               =     T
redata: Electronic Temperature           =     0.0037  Ry
redata: Fix the spin of the system       =     F
redata: Dynamics option                  =     Single-point calculation
redata: ***********************************************************************
Total number of electrons:    38.000000
Total ionic charge:    38.000000

* ProcessorY, Blocksize:    2  24


* Orbital distribution balance (max,min):    32    24

k-point displ. along   1 input, could be:     0.00    0.50
k-point displ. along   2 input, could be:     0.00    0.50
 Kpoints in:           12 . Kpoints trimmed:           11

siesta: k-grid: Number of k-points =    11
siesta: k-grid: Cutoff (effective) =     5.031 Ang
siesta: k-grid: Supercell and displacements
siesta: k-grid:    4   0   0      0.000
siesta: k-grid:    0   4   0      0.000
siesta: k-grid:    0   0   1      0.000
k-point displ. along   1 input, could be:     0.00    0.50
k-point displ. along   2 input, could be:     0.00    0.50
 Kpoints in:         5100 . Kpoints trimmed:         5051

siesta: PDOS.k-grid: Number of k-points =  5051
siesta: PDOS.k-grid: Cutoff (effective) =     5.031 Ang
siesta: PDOS.k-grid: Supercell and displacements
siesta: PDOS.k-grid:  100   0   0      0.000
siesta: PDOS.k-grid:    0 100   0      0.000
siesta: PDOS.k-grid:    0   0   1      0.000
Using current reciprocal lattice vectors for BandLinesScale
Beware any cell changes by the end of the run
Using current reciprocal lattice vectors for BandLinesScale
Beware any cell changes by the end of the run
Naive supercell factors:     4    4    3

superc: Internal auxiliary supercell:     4 x     4 x     3  =      48
superc: Number of atoms, orbitals, and projectors:    384   4992   6144

                     ====================================
                        Single-point calculation
                     ====================================

superc: Internal auxiliary supercell:     4 x     4 x     3  =      48
superc: Number of atoms, orbitals, and projectors:    384   4992   6144

outcell: Unit cell vectors (Ang):
        7.020675    0.039771   -0.007047
        3.475948    6.100182   -0.003044
       -0.009788    0.000621   10.062016

outcell: Cell vector modules (Ang)   :    7.020791    7.021000   10.062021
outcell: Cell angles (23,13,12) (deg):     90.0494     90.1132     60.0005
outcell: Cell volume (Ang**3)        :    429.5385
New_DM. Step:     1
Initializing Density Matrix...

iodm: Reading Density Matrix from files
New grid distribution:   1
           1       1:   32    1:   16    1:   27
           2       1:   32    1:   16   28:   54
           3       1:   32   17:   32    1:   27
           4       1:   32   17:   32   28:   54

InitMesh: MESH =    64 x    64 x   108 =      442368
InitMesh: (bp) =    32 x    32 x    54 =       55296
InitMesh: Mesh cutoff (required, used) =   300.000   306.195 Ry
ExtMesh (bp) on 0 =   112 x    96 x   111 =     1193472
New grid distribution:   2
           1       1:   32    1:   16    1:   31
           2       1:   32    1:   16   32:   54
           3       1:   32   17:   32    1:   31
           4       1:   32   17:   32   32:   54
New grid distribution:   3
           1       1:   32    1:   15    1:   30
           2       1:   32    1:   17   31:   54
           3       1:   32   16:   32    1:   30
           4       1:   32   18:   32   31:   54
Setting up quadratic distribution...
ExtMesh (bp) on 0 =   112 x    96 x   115 =     1236480
PhiOnMesh: Number of (b)points on node 0 =                15872
PhiOnMesh: nlist on node 0 =               468989

stepf: Fermi-Dirac step function

siesta: Program's energy decomposition (eV):
siesta: Ebs     =      -380.008147
siesta: Eions   =      2071.410545
siesta: Ena     =       501.908594
siesta: Ekin    =       459.735669
siesta: Enl     =       140.466191
siesta: DEna    =        11.693701
siesta: DUscf   =         0.722566
siesta: DUext   =         0.000000
siesta: Exc     =      -330.285665
siesta: eta*DQ  =         0.000000
siesta: Emadel  =         0.000000
siesta: Emeta   =         0.000000
siesta: Emolmec =         0.000000
siesta: Ekinion =         0.000000
siesta: Eharris =     -1287.169489
siesta: Etot    =     -1287.169488
siesta: FreeEng =     -1287.171346

   scf: iscf   Eharris(eV)      E_KS(eV)   FreeEng(eV)    dDmax  Ef(eV)
   scf:    1    -1287.1695    -1287.1695    -1287.1713  0.00025 -4.4617
timer: Routine,Calls,Time,% =    IterSCF     1       1.538  17.89
   scf:    2    -1287.1695    -1287.1695    -1287.1713  0.00101 -4.4618
   scf:    3    -1287.1695    -1287.1695    -1287.1713  0.00002 -4.4617

SCF Convergence by dMax criterion
max |DM_out - DM_in|:     0.00001669
SCF cycle converged after    3 iterations

Using DM_out to compute the final energy and forces

siesta: E_KS(eV) =            -1287.1695

siesta: E_KS - E_eggbox =     -1287.1695

siesta: Atomic forces (eV/Ang):
----------------------------------------
   Tot   -0.000397    0.000092    0.001153
----------------------------------------
   Max    0.001234
   Res    0.000692    sqrt( Sum f_i^2 / 3N )
----------------------------------------
   Max    0.001234    constrained

Stress-tensor-Voigt (kbar):       -0.00        0.00       -0.00       -0.01        0.00        0.00
(Free)E + p*V (eV/cell)    -1287.1711
Target enthalpy (eV/cell)    -1287.1713
Computing bands...
Writing WFSX for bands in transition.bands.WFSX
siesta: PDOS info: 
siesta: e1, e2, sigma, nhist:    -7.46 eV   -1.46 eV    0.03 eV   2000

siesta: Program's energy decomposition (eV):
siesta: Ebs     =      -380.010512
siesta: Eions   =      2071.410545
siesta: Ena     =       501.908594
siesta: Ekin    =       459.735879
siesta: Enl     =       140.466262
siesta: DEna    =        11.693487
siesta: DUscf   =         0.722563
siesta: DUext   =         0.000000
siesta: Exc     =      -330.285729
siesta: eta*DQ  =         0.000000
siesta: Emadel  =         0.000000
siesta: Emeta   =         0.000000
siesta: Emolmec =         0.000000
siesta: Ekinion =         0.000000
siesta: Eharris =     -1287.169488
siesta: Etot    =     -1287.169488
siesta: FreeEng =     -1287.171346

siesta: Final energy (eV):
siesta:  Band Struct. =    -380.010512
siesta:       Kinetic =     459.735879
siesta:       Hartree =    1266.489058
siesta:    Ext. field =       0.000000
siesta:   Exch.-corr. =    -330.285729
siesta:  Ion-electron =   -2943.564703
siesta:       Ion-ion =     260.456008
siesta:       Ekinion =       0.000000
siesta:         Total =   -1287.169488

siesta: Atomic forces (eV/Ang):
siesta:      1    0.000456    0.000099    0.001026
siesta:      2    0.000411   -0.000911   -0.001161
siesta:      3   -0.000706   -0.000069   -0.000417
siesta:      4    0.000839    0.001054    0.000059
siesta:      5   -0.000787    0.000920    0.000850
siesta:      6    0.000879   -0.000670    0.000211
siesta:      7   -0.001234   -0.000057    0.000504
siesta:      8   -0.000255   -0.000273    0.000082
siesta: ----------------------------------------
siesta:    Tot   -0.000397    0.000092    0.001153

siesta: Stress tensor (static) (eV/Ang**3):
siesta:    -0.000000   -0.000005    0.000001
siesta:    -0.000005    0.000001    0.000001
siesta:     0.000001    0.000001   -0.000003

siesta: Cell volume =        429.538532 Ang**3

siesta: Pressure (static):
siesta:                Solid            Molecule  Units
siesta:           0.00000001          0.00000000  Ry/Bohr**3
siesta:           0.00000058          0.00000021  eV/Ang**3
siesta:           0.00092551          0.00033232  kBar
(Free)E+ p_basis*V_orbitals  =       -1282.071865
(Free)Eharris+ p_basis*V_orbitals  =       -1282.071865

siesta: Electric dipole (a.u.)  =   -0.000000    0.000000   -0.000081
siesta: Electric dipole (Debye) =   -0.000000    0.000000   -0.000206
>> End of run:   1-AUG-2019  16:22:21
Job completed
Siesta Version  : v4.0.2
Architecture    : intel-mkl
Compiler version: ifort (IFORT) 17.0.8 20180907
Compiler flags  : mpiifort  -w -mp1 -xSSE4.2 -ip -zero -O2 -DMPI -Vaxlib -lpthread 
PP flags        :  -O2 -zero -mp1 -xSSE4.2 -ipo -Vaxlib  
PARALLEL version

* Running in serial mode with MPI
>> Start of run:  23-AUG-2019  13:30:36

                           ***********************       
                           *  WELCOME TO SIESTA  *       
                           ***********************       

reinit: Reading from standard input
************************** Dump of input data file ****************************
SystemName transition
SystemLabel transition
%include struct.fdf
%block kgrid_Monkhorst_Pack
 4    0    0   0.0
 0    4    0   0.0
 0    0    1   0.0
%endblock kgrid_Monkhorst_Pack
#%block GeometryConstraints
#cellangle alpha beta gamma
#%endblock GeometryConstraints
MeshCutoff            300  Ry
MD.VariableCell       F
PAO.BasisSize         DZP
PAO.EnergyShift       0.01  Ry
XC.functional         GGA
XC.authors            PBE
ElectronicTemperature     50 meV
MD.TypeOfRun          CG
MD.NumCGsteps         0
MD.MaxForceTol        0.001  eV/Ang
MD.FinalTimeStep      1
MaxSCFIterations      600
DM.MixingWeight       0.8
DM.NumberPulay        8
DM.Tolerance          1.d-4
SolutionMethod       diagon
ParallelOverK         .true.
UseSaveData           .true.
MD.UseSaveXV          .true.
DM.UseSaveDM          .true.
MD.UseSaveCG          .true.
#==================================================
#     BAND & PDOS
#=================================================
#%block ProjectedDensityOfStates
#-7.46170618 -1.46170618     0.030 2000 eV
#%endblock ProjectedDensityOfStates
#
#%block PDOS.kgrid_Monkhorst_Pack
#100    0     0   0.0
# 0    100    0   0.0
# 0     0     1   0.0
#%endblock PDOS.kgrid_Monkhorst_Pack
#
#BandLinesScale    ReciprocalLatticeVectors
#
#%block BandLines
#1     0.00000    0.00000    0.00000    \Gamma
#150   0.66667    0.33333    0.00000    K
#90    0.50000    0.00000    0.00000    M
#130   0.00000    0.00000    0.00000    \Gamma
#%endblock BandLines
#
#WFS.Write.For.Bands    T
#==================================================
#     Charge & Properties
#=================================================
#SaveDeltaRho   T
#==================================================
#     Theromelectic Properties
#=================================================
%block BT.kgrid_Monkhorst_Pack
80     0     0   0.0
 0    80     0   0.0
 0     0     1   0.0
%endblock BT.kgrid_Monkhorst_Pack
BT.Symprec 0.0001
************************** End of input data file *****************************

reinit: -----------------------------------------------------------------------
reinit: System Name: transition
reinit: -----------------------------------------------------------------------
reinit: System Label: transition                                                  
reinit: -----------------------------------------------------------------------

initatom: Reading input for the pseudopotentials and atomic orbitals ----------
 Species number:            1  Label: P Atomic number:          15
 Species number:            2  Label: Ge Atomic number:          32
Ground state valence configuration:   3s02  3p03
Reading pseudopotential information in formatted form from P.psf

Valence configuration for pseudopotential generation:
3s( 2.00) rc: 1.83
3p( 3.00) rc: 1.83
3d( 0.00) rc: 1.83
4f( 0.00) rc: 1.83
Ground state valence configuration:   4s02  4p02
Reading pseudopotential information in formatted form from Ge.psf

Pseudopotential generated from a relativistic atomic calculation
There are spin-orbit pseudopotentials available
Spin-orbit interaction is not included in this calculation

Valence configuration for pseudopotential generation:
4s( 2.00) rc: 2.81
4p( 2.00) rc: 2.11
4d( 0.00) rc: 2.71
4f( 0.00) rc: 2.45
For P, standard SIESTA heuristics set lmxkb to 3
 (one more than the basis l, including polarization orbitals).
Use PS.lmax or PS.KBprojectors blocks to override.
For Ge, standard SIESTA heuristics set lmxkb to 3
 (one more than the basis l, including polarization orbitals).
Use PS.lmax or PS.KBprojectors blocks to override.

<basis_specs>
===============================================================================
P                    Z=  15    Mass=  30.970        Charge= 0.17977+309
Lmxo=1 Lmxkb= 3    BasisType=split      Semic=F
L=0  Nsemic=0  Cnfigmx=3
          n=1  nzeta=2  polorb=0
            splnorm:   0.15000    
               vcte:    0.0000    
               rinn:    0.0000    
               qcoe:    0.0000    
               qyuk:    0.0000    
               qwid:   0.10000E-01
                rcs:    0.0000      0.0000    
            lambdas:    1.0000      1.0000    
L=1  Nsemic=0  Cnfigmx=3
          n=1  nzeta=2  polorb=1
            splnorm:   0.15000    
               vcte:    0.0000    
               rinn:    0.0000    
               qcoe:    0.0000    
               qyuk:    0.0000    
               qwid:   0.10000E-01
                rcs:    0.0000      0.0000    
            lambdas:    1.0000      1.0000    
-------------------------------------------------------------------------------
L=0  Nkbl=1  erefs: 0.17977+309
L=1  Nkbl=1  erefs: 0.17977+309
L=2  Nkbl=1  erefs: 0.17977+309
L=3  Nkbl=1  erefs: 0.17977+309
===============================================================================
</basis_specs>

atom: Called for P                     (Z =  15)

read_vps: Pseudopotential generation method:
read_vps: ATM3      Troullier-Martins                       
Total valence charge:    5.00000

xc_check: Exchange-correlation functional:
xc_check: GGA Perdew, Burke & Ernzerhof 1996
V l=0 = -2*Zval/r beyond r=  2.4397
V l=1 = -2*Zval/r beyond r=  2.4397
V l=2 = -2*Zval/r beyond r=  2.4397
V l=3 = -2*Zval/r beyond r=  2.4397
All V_l potentials equal beyond r=  1.8073
This should be close to max(r_c) in ps generation
All pots = -2*Zval/r beyond r=  2.4397
Using large-core scheme for Vlocal

atom: Estimated core radius    2.43972

atom: Including non-local core corrections could be a good idea
atom: Maximum radius for 4*pi*r*r*local-pseudopot. charge    2.69632
atom: Maximum radius for r*vlocal+2*Zval:    2.47041
GHOST: No ghost state for L =  0
GHOST: No ghost state for L =  1
GHOST: No ghost state for L =  2
GHOST: No ghost state for L =  3

KBgen: Kleinman-Bylander projectors: 
   l= 0   rc=  1.876413   el= -1.021300   Ekb=  5.335550   kbcos=  0.315660
   l= 1   rc=  1.876413   el= -0.405549   Ekb=  1.786877   kbcos=  0.299449
   l= 2   rc=  1.876413   el=  0.002048   Ekb= -3.279916   kbcos= -0.053493
   l= 3   rc=  1.876413   el=  0.003178   Ekb= -0.980330   kbcos= -0.004709

KBgen: Total number of  Kleinman-Bylander projectors:   16
atom: -------------------------------------------------------------------------

atom: SANKEY-TYPE ORBITALS:
atom: Selected multiple-zeta basis: split     

SPLIT: Orbitals with angular momentum L= 0

SPLIT: Basis orbitals for state 3s

SPLIT: PAO cut-off radius determined from an
SPLIT: energy shift=  0.010000 Ry

   izeta = 1
                 lambda =    1.000000
                     rc =    4.913154
                 energy =   -1.012176
                kinetic =    0.684531
    potential(screened) =   -1.696708
       potential(ionic) =   -5.314509

   izeta = 2
                 rmatch =    3.923200
              splitnorm =    0.150000
                 energy =   -0.897399
                kinetic =    1.052872
    potential(screened) =   -1.950271
       potential(ionic) =   -5.732680

SPLIT: Orbitals with angular momentum L= 1

SPLIT: Basis orbitals for state 3p

SPLIT: PAO cut-off radius determined from an
SPLIT: energy shift=  0.010000 Ry

   izeta = 1
                 lambda =    1.000000
                     rc =    6.152896
                 energy =   -0.396509
                kinetic =    1.129011
    potential(screened) =   -1.525520
       potential(ionic) =   -4.851674

   izeta = 2
                 rmatch =    4.445590
              splitnorm =    0.150000
                 energy =   -0.288846
                kinetic =    1.632971
    potential(screened) =   -1.921817
       potential(ionic) =   -5.532745

POLgen: Perturbative polarization orbital with L=  2

POLgen: Polarization orbital for state 3p

   izeta = 1
                     rc =    6.152896
                 energy =    0.519541
                kinetic =    1.606505
    potential(screened) =   -1.086964
       potential(ionic) =   -4.092075
atom: Total number of Sankey-type orbitals: 13

atm_pop: Valence configuration (for local Pseudopot. screening):
 3s( 2.00)                                                            
 3p( 3.00)                                                            
Vna: chval, zval:    5.00000   5.00000

Vna:  Cut-off radius for the neutral-atom potential:   6.152896

atom: _________________________________________________________________________

<basis_specs>
===============================================================================
Ge                   Z=  32    Mass=  72.610        Charge= 0.17977+309
Lmxo=1 Lmxkb= 3    BasisType=split      Semic=F
L=0  Nsemic=0  Cnfigmx=4
          n=1  nzeta=2  polorb=0
            splnorm:   0.15000    
               vcte:    0.0000    
               rinn:    0.0000    
               qcoe:    0.0000    
               qyuk:    0.0000    
               qwid:   0.10000E-01
                rcs:    0.0000      0.0000    
            lambdas:    1.0000      1.0000    
L=1  Nsemic=0  Cnfigmx=4
          n=1  nzeta=2  polorb=1
            splnorm:   0.15000    
               vcte:    0.0000    
               rinn:    0.0000    
               qcoe:    0.0000    
               qyuk:    0.0000    
               qwid:   0.10000E-01
                rcs:    0.0000      0.0000    
            lambdas:    1.0000      1.0000    
-------------------------------------------------------------------------------
L=0  Nkbl=1  erefs: 0.17977+309
L=1  Nkbl=1  erefs: 0.17977+309
L=2  Nkbl=1  erefs: 0.17977+309
L=3  Nkbl=1  erefs: 0.17977+309
===============================================================================
</basis_specs>

atom: Called for Ge                    (Z =  32)

read_vps: Pseudopotential generation method:
read_vps: ATM3      Troullier-Martins                       
Total valence charge:    4.00000

xc_check: Exchange-correlation functional:
xc_check: GGA Perdew, Burke & Ernzerhof 1996
V l=0 = -2*Zval/r beyond r=  3.3093
V l=1 = -2*Zval/r beyond r=  3.3093
V l=2 = -2*Zval/r beyond r=  3.3093
V l=3 = -2*Zval/r beyond r=  3.3093
All V_l potentials equal beyond r=  2.7780
This should be close to max(r_c) in ps generation
All pots = -2*Zval/r beyond r=  3.3093

VLOCAL1: 99.0% of the norm of Vloc inside      5.625 Ry
VLOCAL1: 99.9% of the norm of Vloc inside     12.819 Ry
atom: Maximum radius for 4*pi*r*r*local-pseudopot. charge    3.30931
atom: Maximum radius for r*vlocal+2*Zval:    2.88417
GHOST: No ghost state for L =  0
GHOST: No ghost state for L =  1
GHOST: No ghost state for L =  2
GHOST: No ghost state for L =  3

KBgen: Kleinman-Bylander projectors: 
   l= 0   rc=  3.435772   el= -0.860281   Ekb=  2.253895   kbcos=  0.346706
   l= 1   rc=  3.797123   el= -0.286425   Ekb=  3.948998   kbcos=  0.081475
   l= 2   rc=  4.196478   el=  0.001966   Ekb=  0.640131   kbcos=  0.074523
   l= 3   rc=  4.411640   el=  0.003058   Ekb= -1.119155   kbcos= -0.012627

KBgen: Total number of  Kleinman-Bylander projectors:   16
atom: -------------------------------------------------------------------------

atom: SANKEY-TYPE ORBITALS:
atom: Selected multiple-zeta basis: split     

SPLIT: Orbitals with angular momentum L= 0

SPLIT: Basis orbitals for state 4s

SPLIT: PAO cut-off radius determined from an
SPLIT: energy shift=  0.010000 Ry

   izeta = 1
                 lambda =    1.000000
                     rc =    5.255364
                 energy =   -0.850149
                kinetic =    0.503784
    potential(screened) =   -1.353933
       potential(ionic) =   -3.838766

   izeta = 2
                 rmatch =    4.356837
              splitnorm =    0.150000
                 energy =   -0.762756
                kinetic =    0.731602
    potential(screened) =   -1.494358
       potential(ionic) =   -4.095989

SPLIT: Orbitals with angular momentum L= 1

SPLIT: Basis orbitals for state 4p

SPLIT: PAO cut-off radius determined from an
SPLIT: energy shift=  0.010000 Ry

   izeta = 1
                 lambda =    1.000000
                     rc =    7.094027
                 energy =   -0.277397
                kinetic =    0.776837
    potential(screened) =   -1.054234
       potential(ionic) =   -3.237146

   izeta = 2
                 rmatch =    5.321470
              splitnorm =    0.150000
                 energy =   -0.200106
                kinetic =    1.121672
    potential(screened) =   -1.321778
       potential(ionic) =   -3.691586

POLgen: Perturbative polarization orbital with L=  2

POLgen: Polarization orbital for state 4p

   izeta = 1
                     rc =    7.094027
                 energy =    0.355725
                kinetic =    1.134577
    potential(screened) =   -0.778852
       potential(ionic) =   -2.763244
atom: Total number of Sankey-type orbitals: 13

atm_pop: Valence configuration (for local Pseudopot. screening):
 4s( 2.00)                                                            
 4p( 2.00)                                                            
Vna: chval, zval:    4.00000   4.00000

Vna:  Cut-off radius for the neutral-atom potential:   7.094027

atom: _________________________________________________________________________

prinput: Basis input ----------------------------------------------------------

PAO.BasisType split     

%block ChemicalSpeciesLabel
    1   15 P                       # Species index, atomic number, species label
    2   32 Ge                      # Species index, atomic number, species label
%endblock ChemicalSpeciesLabel

%block PAO.Basis                 # Define Basis set
P                     2                    # Species label, number of l-shells
 n=3   0   2                         # n, l, Nzeta 
   4.913      3.923   
   1.000      1.000   
 n=3   1   2 P   1                   # n, l, Nzeta, Polarization, NzetaPol
   6.153      4.446   
   1.000      1.000   
Ge                    2                    # Species label, number of l-shells
 n=4   0   2                         # n, l, Nzeta 
   5.255      4.357   
   1.000      1.000   
 n=4   1   2 P   1                   # n, l, Nzeta, Polarization, NzetaPol
   7.094      5.321   
   1.000      1.000   
%endblock PAO.Basis

prinput: ----------------------------------------------------------------------

coor:   Atomic-coordinates input format  =     Fractional

ioxv: Reading coordinates and velocities from file
! Info in XV file prevails over previous structure input

siesta: Atomic coordinates (Bohr) and species
siesta:      3.34313   1.93385   8.39859  2        1
siesta:      6.56915   3.81703  11.35750  1        2
siesta:      6.54656   7.75044   9.95178  1        3
siesta:      9.94399   9.73270  11.35983  1        4
siesta:     13.35663   7.78546   9.93415  1        5
siesta:     13.37950   3.85624  11.36153  1        6
siesta:      9.98558   1.87153   9.94383  1        7
siesta:     16.57154   9.66959  12.90425  2        8

siesta: System type = slab      

initatomlists: Number of atoms, orbitals, and projectors:      8   104   128

siesta: ******************** Simulation parameters ****************************
siesta:
siesta: The following are some of the parameters of the simulation.
siesta: A complete list of the parameters used, including default values,
siesta: can be found in file out.fdf
siesta:
redata: Non-Collinear-spin run           =     F
redata: SpinPolarized (Up/Down) run      =     F
redata: Number of spin components        =     1
redata: Long output                      =     F
redata: Number of Atomic Species         =        2
redata: Charge density info will appear in .RHO file
redata: Write Mulliken Pop.              =     NO
redata: Matel table size (NRTAB)         =     1024
redata: Mesh Cutoff                      =   300.0000 Ry
redata: Net charge of the system         =     0.0000 |e|
redata: Min. number of SCF Iter          =        0
redata: Max. number of SCF Iter          =      600
redata: Mix DM or H after convergence    =     F
redata: Recompute H after scf cycle      =     F
redata: Performing Pulay mixing using    =     8 iterations
redata: Mix DM in first SCF step ?       =     F
redata: Write Pulay info on disk?        =     F
redata: Discard 1st Pulay DM after  kick =     F
redata: New DM Mixing Weight             =     0.8000
redata: New DM Occupancy tolerance       = 0.000000000001
redata: No kicks to SCF
redata: DM Mixing Weight for Kicks       =     0.5000
redata: DM Tolerance for SCF             =     0.000100
redata: Require (free) Energy convergence in SCF =     F
redata: DM (free)Energy tolerance for SCF =     0.000010 eV
redata: Require Harris convergence for SCF =     F
redata: DM Harris energy tolerance for SCF =     0.000010 eV
redata: Using Saved Data (generic)   =     T
redata: Use continuation files for DM    =     T
redata: Neglect nonoverlap interactions  =     F
redata: Method of Calculation            =     Diagonalization
redata: Divide and Conquer               =     T
redata: Electronic Temperature           =     0.0037  Ry
redata: Fix the spin of the system       =     F
redata: Dynamics option                  =     Single-point calculation
redata: ***********************************************************************
Total number of electrons:    38.000000
Total ionic charge:    38.000000

* ProcessorY, Blocksize:    1  24


* Orbital distribution balance (max,min):   104   104

k-point displ. along   1 input, could be:     0.00    0.50
k-point displ. along   2 input, could be:     0.00    0.50
 Kpoints in:           12 . Kpoints trimmed:           11

siesta: k-grid: Number of k-points =    11
siesta: k-grid: Cutoff (effective) =     5.031 Ang
siesta: k-grid: Supercell and displacements
siesta: k-grid:    4   0   0      0.000
siesta: k-grid:    0   4   0      0.000
siesta: k-grid:    0   0   1      0.000
Naive supercell factors:     4    4    3

superc: Internal auxiliary supercell:     4 x     4 x     3  =      48
superc: Number of atoms, orbitals, and projectors:    384   4992   6144

                     ====================================
                        Single-point calculation
                     ====================================

superc: Internal auxiliary supercell:     4 x     4 x     3  =      48
superc: Number of atoms, orbitals, and projectors:    384   4992   6144

outcell: Unit cell vectors (Ang):
        7.020675    0.039771   -0.007047
        3.475948    6.100182   -0.003044
       -0.009788    0.000621   10.062016

outcell: Cell vector modules (Ang)   :    7.020791    7.021000   10.062021
outcell: Cell angles (23,13,12) (deg):     90.0494     90.1132     60.0005
outcell: Cell volume (Ang**3)        :    429.5385
New_DM. Step:     1
Initializing Density Matrix...

iodm: Reading Density Matrix from files
New grid distribution:   1
           1       1:   32    1:   32    1:   54

InitMesh: MESH =    64 x    64 x   108 =      442368
InitMesh: (bp) =    32 x    32 x    54 =       55296
InitMesh: Mesh cutoff (required, used) =   300.000   306.195 Ry
ExtMesh (bp) on 0 =   112 x   112 x   138 =     1731072
PhiOnMesh: Number of (b)points on node 0 =                55296
PhiOnMesh: nlist on node 0 =              1796774

stepf: Fermi-Dirac step function

siesta: Program's energy decomposition (eV):
siesta: Ebs     =      -379.999464
siesta: Eions   =      2071.410545
siesta: Ena     =       501.908594
siesta: Ekin    =       459.738290
siesta: Enl     =       140.467104
siesta: DEna    =        11.690964
siesta: DUscf   =         0.722565
siesta: DUext   =         0.000000
siesta: Exc     =      -330.286460
siesta: eta*DQ  =         0.000000
siesta: Emadel  =         0.000000
siesta: Emeta   =         0.000000
siesta: Emolmec =         0.000000
siesta: Ekinion =         0.000000
siesta: Eharris =     -1287.169490
siesta: Etot    =     -1287.169488
siesta: FreeEng =     -1287.171346

   scf: iscf   Eharris(eV)      E_KS(eV)   FreeEng(eV)    dDmax  Ef(eV)
   scf:    1    -1287.1695    -1287.1695    -1287.1713  0.00020 -4.4616
timer: Routine,Calls,Time,% =    IterSCF     1       3.076  24.68
   scf:    2    -1287.1695    -1287.1695    -1287.1713  0.00076 -4.4620
   scf:    3    -1287.1695    -1287.1695    -1287.1713  0.00007 -4.4618

SCF Convergence by dMax criterion
max |DM_out - DM_in|:     0.00007146
SCF cycle converged after    3 iterations

Using DM_out to compute the final energy and forces

siesta: E_KS(eV) =            -1287.1695

siesta: E_KS - E_eggbox =     -1287.1695

siesta: Atomic forces (eV/Ang):
----------------------------------------
   Tot   -0.000396    0.000092    0.001153
----------------------------------------
   Max    0.001776
   Res    0.000864    sqrt( Sum f_i^2 / 3N )
----------------------------------------
   Max    0.001776    constrained

Stress-tensor-Voigt (kbar):       -0.01       -0.01       -0.01       -0.01        0.00        0.00
(Free)E + p*V (eV/cell)    -1287.1689
Target enthalpy (eV/cell)    -1287.1713

siesta: Program's energy decomposition (eV):
siesta: Ebs     =      -380.013599
siesta: Eions   =      2071.410545
siesta: Ena     =       501.908594
siesta: Ekin    =       459.738140
siesta: Enl     =       140.467053
siesta: DEna    =        11.691118
siesta: DUscf   =         0.722567
siesta: DUext   =         0.000000
siesta: Exc     =      -330.286415
siesta: eta*DQ  =         0.000000
siesta: Emadel  =         0.000000
siesta: Emeta   =         0.000000
siesta: Emolmec =         0.000000
siesta: Ekinion =         0.000000
siesta: Eharris =     -1287.169489
siesta: Etot    =     -1287.169488
siesta: FreeEng =     -1287.171345

siesta: Final energy (eV):
siesta:  Band Struct. =    -380.013599
siesta:       Kinetic =     459.738140
siesta:       Hartree =    1266.496681
siesta:    Ext. field =       0.000000
siesta:   Exch.-corr. =    -330.286415
siesta:  Ion-electron =   -2943.573901
siesta:       Ion-ion =     260.456008
siesta:       Ekinion =       0.000000
siesta:         Total =   -1287.169488

siesta: Atomic forces (eV/Ang):
siesta:      1    0.000389    0.000101    0.001396
siesta:      2   -0.000166   -0.000563   -0.001293
siesta:      3   -0.000790   -0.000010    0.000093
siesta:      4   -0.000309    0.001776    0.000341
siesta:      5   -0.000158    0.001233   -0.000529
siesta:      6    0.001587   -0.001708    0.000868
siesta:      7   -0.001177   -0.000458    0.000057
siesta:      8    0.000227   -0.000280    0.000221
siesta: ----------------------------------------
siesta:    Tot   -0.000396    0.000092    0.001153

siesta: Stress tensor (static) (eV/Ang**3):
siesta:    -0.000007   -0.000004    0.000001
siesta:    -0.000004   -0.000006    0.000001
siesta:     0.000001    0.000001   -0.000004

siesta: Cell volume =        429.538532 Ang**3

siesta: Pressure (static):
siesta:                Solid            Molecule  Units
siesta:           0.00000006         -0.00000002  Ry/Bohr**3
siesta:           0.00000563         -0.00000209  eV/Ang**3
siesta:           0.00901696         -0.00334999  kBar
(Free)E+ p_basis*V_orbitals  =       -1282.071865
(Free)Eharris+ p_basis*V_orbitals  =       -1282.071866

siesta: Electric dipole (a.u.)  =   -0.000000    0.000000   -0.000155
siesta: Electric dipole (Debye) =   -0.000000    0.000000   -0.000393

Begining of SIESTA to BoltzTraP subroutine (siesta2bt)

siesta2bt: searching for rotation matrices (symmetry operations) via Spglib

siesta2bt:  number of symmetry operations found:    1

siesta2bt: allocating grid:    80 x    80 x     1 =        6400
Grid successfully allocated!

siesta2bt: finding irreducible k-points (IBZ)
IBZ successfully found!

siesta2bt:  number of irreducible k-points points found: 3202

siesta2bt: allocating IBZ grid...

siesta2bt: extracting IBZ k-points...

siesta2bt: calculating eigenenergies...

siesta2bt: writing files:  
 transition.intrans  Done!
 transition.struct  Done!
 transition.energy  Done!

End of SIESTA to BoltzTraP subroutine (siesta2bt)

timer: Elapsed wall time (sec) =      40.881
timer: CPU execution times (sec):

Routine            Calls   Time/call    Tot.time        %
siesta                 1      40.757      40.757   100.00
Setup                  1       0.329       0.329     0.81
bands                  2       7.064      14.128    34.67
KSV_init               1       0.000       0.000     0.00
IterGeom               1      24.621      24.621    60.41
state_init             1       0.977       0.977     2.40
hsparse                1       0.044       0.044     0.11
overlap                1       0.911       0.911     2.23
Setup_H0               1       8.083       8.083    19.83
naefs                  2       0.001       0.002     0.00
MolMec                 2       0.000       0.000     0.00
kinefsm                2       0.452       0.904     2.22
nlefsm                 2       2.313       4.627    11.35
DHSCF_Init             1       2.928       2.928     7.18
DHSCF1                 1       0.069       0.069     0.17
INITMESH               1       0.000       0.000     0.00
DHSCF2                 1       2.859       2.859     7.02
REMESH                 1       0.182       0.182     0.45
REORD                 16       0.001       0.020     0.05
PHION                  1       2.327       2.327     5.71
COMM_BSC              11       0.001       0.014     0.03
POISON                 5       0.119       0.596     1.46
fft                   10       0.053       0.534     1.31
IterSCF                3       3.040       9.121    22.38
setup_H                3       2.846       8.538    20.95
DHSCF                  4       3.641      14.563    35.73
DHSCF3                 4       2.831      11.324    27.78
rhoofd                 4       0.809       3.236     7.94
cellXC                 4       0.973       3.894     9.55
vmat                   4       0.915       3.659     8.98
compute_dm             3       0.189       0.567     1.39
diagon                 3       0.176       0.528     1.30
c-eigval            3235       0.004      14.255    34.98
c-buildHS           3235       0.001       4.328    10.62
cdiag               3268       0.003      10.099    24.78
cdiag1              3268       0.000       0.854     2.10
cdiag2              3268       0.001       3.658     8.98
cdiag3              3268       0.002       5.484    13.46
cdiag4              3268       0.000       0.016     0.04
c-eigvec              33       0.008       0.248     0.61
c-buildD              33       0.004       0.137     0.34
MIXER                  2       0.001       0.001     0.00
WriteDM                3       0.007       0.020     0.05
PostSCF                1       6.433       6.433    15.78
DHSCF4                 1       3.239       3.239     7.95
dfscf                  1       2.986       2.986     7.33
overfsm                1       0.028       0.028     0.07
state_analysis         1       0.001       0.001     0.00
siesta_move            1       0.000       0.000     0.00
siesta_analysis        1      15.801      15.801    38.77
optical                1       0.000       0.000     0.00
  
>> End of run:  23-AUG-2019  13:31:16
Job completed
