Siesta Version  : v4.0.2
Architecture    : intel-mkl
Compiler version: ifort (IFORT) 17.0.8 20180907
Compiler flags  : mpiifort  -w -mp1 -xSSE4.2 -ip -zero -O2 -DMPI -Vaxlib -lpthread 
PP flags        :  -O2 -zero -mp1 -xSSE4.2 -ipo -Vaxlib  
PARALLEL version

* Running on    4 nodes in parallel
>> Start of run:   1-AUG-2019  16:08:48

                           ***********************       
                           *  WELCOME TO SIESTA  *       
                           ***********************       

reinit: Reading from standard input
************************** Dump of input data file ****************************
SystemName transition
SystemLabel transition
%include struct.fdf
%block kgrid_Monkhorst_Pack
 4    0    0   0.0
 0    4    0   0.0
 0    0    1   0.0
%endblock kgrid_Monkhorst_Pack
#%block GeometryConstraints
#cellangle alpha beta gamma
#%endblock GeometryConstraints
MeshCutoff            300  Ry
MD.VariableCell       F
PAO.BasisSize         DZP
PAO.EnergyShift       0.01  Ry
XC.functional         GGA
XC.authors            PBE
ElectronicTemperature     50 meV
MD.TypeOfRun          CG
MD.NumCGsteps         0
MD.MaxForceTol        0.001  eV/Ang
MD.FinalTimeStep      1
MaxSCFIterations      600
DM.MixingWeight       0.8
DM.NumberPulay        8
DM.Tolerance          1.d-6
SolutionMethod       diagon
ParallelOverK         .true.
UseSaveData           .true.
MD.UseSaveXV          .true.
DM.UseSaveDM          .true.
MD.UseSaveCG          .true.
#==================================================
#     BAND & PDOS
#=================================================
%block ProjectedDensityOfStates
-7.18288585   -1.18288585     0.030 2000 eV
%endblock ProjectedDensityOfStates
%block PDOS.kgrid_Monkhorst_Pack
100    0     0   0.0
 0    100    0   0.0
 0     0     1   0.0
%endblock PDOS.kgrid_Monkhorst_Pack
BandLinesScale    ReciprocalLatticeVectors
%block BandLines
1     0.00000    0.00000    0.00000    \Gamma
150   0.66667    0.33333    0.00000    K
90    0.50000    0.00000    0.00000    M
130   0.00000    0.00000    0.00000    \Gamma
%endblock BandLines
WFS.Write.For.Bands    T
#==================================================
#     Charge & Properties
#=================================================
#SaveDeltaRho   T
#==================================================
#     Theromelectic Properties
#=================================================
%block BT.kgrid_Monkhorst_Pack
150    0     0   0.0
 0    150    0   0.0
 0     0     1   0.0
%endblock BT.kgrid_Monkhorst_Pack
BT.Symprec 0.00001
************************** End of input data file *****************************

reinit: -----------------------------------------------------------------------
reinit: System Name: transition
reinit: -----------------------------------------------------------------------
reinit: System Label: transition                                                  
reinit: -----------------------------------------------------------------------

initatom: Reading input for the pseudopotentials and atomic orbitals ----------
 Species number:            1  Label: Ge Atomic number:          32
Ground state valence configuration:   4s02  4p02
Reading pseudopotential information in formatted form from Ge.psf

Pseudopotential generated from a relativistic atomic calculation
There are spin-orbit pseudopotentials available
Spin-orbit interaction is not included in this calculation

Valence configuration for pseudopotential generation:
4s( 2.00) rc: 2.81
4p( 2.00) rc: 2.11
4d( 0.00) rc: 2.71
4f( 0.00) rc: 2.45
For Ge, standard SIESTA heuristics set lmxkb to 3
 (one more than the basis l, including polarization orbitals).
Use PS.lmax or PS.KBprojectors blocks to override.

<basis_specs>
===============================================================================
Ge                   Z=  32    Mass=  72.610        Charge= 0.17977+309
Lmxo=1 Lmxkb= 3    BasisType=split      Semic=F
L=0  Nsemic=0  Cnfigmx=4
          n=1  nzeta=2  polorb=0
            splnorm:   0.15000    
               vcte:    0.0000    
               rinn:    0.0000    
               qcoe:    0.0000    
               qyuk:    0.0000    
               qwid:   0.10000E-01
                rcs:    0.0000      0.0000    
            lambdas:    1.0000      1.0000    
L=1  Nsemic=0  Cnfigmx=4
          n=1  nzeta=2  polorb=1
            splnorm:   0.15000    
               vcte:    0.0000    
               rinn:    0.0000    
               qcoe:    0.0000    
               qyuk:    0.0000    
               qwid:   0.10000E-01
                rcs:    0.0000      0.0000    
            lambdas:    1.0000      1.0000    
-------------------------------------------------------------------------------
L=0  Nkbl=1  erefs: 0.17977+309
L=1  Nkbl=1  erefs: 0.17977+309
L=2  Nkbl=1  erefs: 0.17977+309
L=3  Nkbl=1  erefs: 0.17977+309
===============================================================================
</basis_specs>

atom: Called for Ge                    (Z =  32)

read_vps: Pseudopotential generation method:
read_vps: ATM3      Troullier-Martins                       
Total valence charge:    4.00000

xc_check: Exchange-correlation functional:
xc_check: GGA Perdew, Burke & Ernzerhof 1996
V l=0 = -2*Zval/r beyond r=  3.3093
V l=1 = -2*Zval/r beyond r=  3.3093
V l=2 = -2*Zval/r beyond r=  3.3093
V l=3 = -2*Zval/r beyond r=  3.3093
All V_l potentials equal beyond r=  2.7780
This should be close to max(r_c) in ps generation
All pots = -2*Zval/r beyond r=  3.3093

VLOCAL1: 99.0% of the norm of Vloc inside      5.625 Ry
VLOCAL1: 99.9% of the norm of Vloc inside     12.819 Ry
atom: Maximum radius for 4*pi*r*r*local-pseudopot. charge    3.30931
atom: Maximum radius for r*vlocal+2*Zval:    2.88417
GHOST: No ghost state for L =  0
GHOST: No ghost state for L =  1
GHOST: No ghost state for L =  2
GHOST: No ghost state for L =  3

KBgen: Kleinman-Bylander projectors: 
   l= 0   rc=  3.435772   el= -0.860281   Ekb=  2.253895   kbcos=  0.346706
   l= 1   rc=  3.797123   el= -0.286425   Ekb=  3.948998   kbcos=  0.081475
   l= 2   rc=  4.196478   el=  0.001966   Ekb=  0.640131   kbcos=  0.074523
   l= 3   rc=  4.411640   el=  0.003058   Ekb= -1.119155   kbcos= -0.012627

KBgen: Total number of  Kleinman-Bylander projectors:   16
atom: -------------------------------------------------------------------------

atom: SANKEY-TYPE ORBITALS:
atom: Selected multiple-zeta basis: split     

SPLIT: Orbitals with angular momentum L= 0

SPLIT: Basis orbitals for state 4s

SPLIT: PAO cut-off radius determined from an
SPLIT: energy shift=  0.010000 Ry

   izeta = 1
                 lambda =    1.000000
                     rc =    5.255364
                 energy =   -0.850149
                kinetic =    0.503784
    potential(screened) =   -1.353933
       potential(ionic) =   -3.838766

   izeta = 2
                 rmatch =    4.356837
              splitnorm =    0.150000
                 energy =   -0.762756
                kinetic =    0.731602
    potential(screened) =   -1.494358
       potential(ionic) =   -4.095989

SPLIT: Orbitals with angular momentum L= 1

SPLIT: Basis orbitals for state 4p

SPLIT: PAO cut-off radius determined from an
SPLIT: energy shift=  0.010000 Ry

   izeta = 1
                 lambda =    1.000000
                     rc =    7.094027
                 energy =   -0.277397
                kinetic =    0.776837
    potential(screened) =   -1.054234
       potential(ionic) =   -3.237146

   izeta = 2
                 rmatch =    5.321470
              splitnorm =    0.150000
                 energy =   -0.200106
                kinetic =    1.121672
    potential(screened) =   -1.321778
       potential(ionic) =   -3.691586

POLgen: Perturbative polarization orbital with L=  2

POLgen: Polarization orbital for state 4p

   izeta = 1
                     rc =    7.094027
                 energy =    0.355725
                kinetic =    1.134577
    potential(screened) =   -0.778852
       potential(ionic) =   -2.763244
atom: Total number of Sankey-type orbitals: 13

atm_pop: Valence configuration (for local Pseudopot. screening):
 4s( 2.00)                                                            
 4p( 2.00)                                                            
Vna: chval, zval:    4.00000   4.00000

Vna:  Cut-off radius for the neutral-atom potential:   7.094027

atom: _________________________________________________________________________

prinput: Basis input ----------------------------------------------------------

PAO.BasisType split     

%block ChemicalSpeciesLabel
    1   32 Ge                      # Species index, atomic number, species label
%endblock ChemicalSpeciesLabel

%block PAO.Basis                 # Define Basis set
Ge                    2                    # Species label, number of l-shells
 n=4   0   2                         # n, l, Nzeta 
   5.255      4.357   
   1.000      1.000   
 n=4   1   2 P   1                   # n, l, Nzeta, Polarization, NzetaPol
   7.094      5.321   
   1.000      1.000   
%endblock PAO.Basis

prinput: ----------------------------------------------------------------------

coor:   Atomic-coordinates input format  =     Fractional

ioxv: Reading coordinates and velocities from file
! Info in XV file prevails over previous structure input

siesta: Atomic coordinates (Bohr) and species
siesta:      3.90835   2.22452   9.91846  1        1
siesta:      7.74451   4.43930  11.27044  1        2
siesta:      7.74468   8.86869   9.91912  1        3
siesta:     11.58055  11.08335  11.27108  1        4
siesta:     15.41657   8.86875   9.91928  1        5
siesta:     15.41618   4.43915  11.27031  1        6
siesta:     11.58019   2.22458   9.91855  1        7
siesta:     19.25266  11.08347  11.27102  1        8

siesta: System type = slab      

initatomlists: Number of atoms, orbitals, and projectors:      8   104   128

siesta: ******************** Simulation parameters ****************************
siesta:
siesta: The following are some of the parameters of the simulation.
siesta: A complete list of the parameters used, including default values,
siesta: can be found in file out.fdf
siesta:
redata: Non-Collinear-spin run           =     F
redata: SpinPolarized (Up/Down) run      =     F
redata: Number of spin components        =     1
redata: Long output                      =     F
redata: Number of Atomic Species         =        1
redata: Charge density info will appear in .RHO file
redata: Write Mulliken Pop.              =     NO
redata: Matel table size (NRTAB)         =     1024
redata: Mesh Cutoff                      =   300.0000 Ry
redata: Net charge of the system         =     0.0000 |e|
redata: Min. number of SCF Iter          =        0
redata: Max. number of SCF Iter          =      600
redata: Mix DM or H after convergence    =     F
redata: Recompute H after scf cycle      =     F
redata: Performing Pulay mixing using    =     8 iterations
redata: Mix DM in first SCF step ?       =     F
redata: Write Pulay info on disk?        =     F
redata: Discard 1st Pulay DM after  kick =     F
redata: New DM Mixing Weight             =     0.8000
redata: New DM Occupancy tolerance       = 0.000000000001
redata: No kicks to SCF
redata: DM Mixing Weight for Kicks       =     0.5000
redata: DM Tolerance for SCF             =     0.000001
redata: Require (free) Energy convergence in SCF =     F
redata: DM (free)Energy tolerance for SCF =     0.000010 eV
redata: Require Harris convergence for SCF =     F
redata: DM Harris energy tolerance for SCF =     0.000010 eV
redata: Using Saved Data (generic)   =     T
redata: Use continuation files for DM    =     T
redata: Neglect nonoverlap interactions  =     F
redata: Method of Calculation            =     Diagonalization
redata: Divide and Conquer               =     T
redata: Electronic Temperature           =     0.0037  Ry
redata: Fix the spin of the system       =     F
redata: Dynamics option                  =     Single-point calculation
redata: ***********************************************************************
Total number of electrons:    32.000000
Total ionic charge:    32.000000

* ProcessorY, Blocksize:    2  24


* Orbital distribution balance (max,min):    32    24

k-point displ. along   1 input, could be:     0.00    0.50
k-point displ. along   2 input, could be:     0.00    0.50
 Kpoints in:           12 . Kpoints trimmed:           11

siesta: k-grid: Number of k-points =    11
siesta: k-grid: Cutoff (effective) =     5.001 Ang
siesta: k-grid: Supercell and displacements
siesta: k-grid:    4   0   0      0.000
siesta: k-grid:    0   4   0      0.000
siesta: k-grid:    0   0   1      0.000
k-point displ. along   1 input, could be:     0.00    0.50
k-point displ. along   2 input, could be:     0.00    0.50
 Kpoints in:         5100 . Kpoints trimmed:         5051

siesta: PDOS.k-grid: Number of k-points =  5051
siesta: PDOS.k-grid: Cutoff (effective) =     5.001 Ang
siesta: PDOS.k-grid: Supercell and displacements
siesta: PDOS.k-grid:  100   0   0      0.000
siesta: PDOS.k-grid:    0 100   0      0.000
siesta: PDOS.k-grid:    0   0   1      0.000
Using current reciprocal lattice vectors for BandLinesScale
Beware any cell changes by the end of the run
Using current reciprocal lattice vectors for BandLinesScale
Beware any cell changes by the end of the run
Naive supercell factors:     3    3    3

superc: Internal auxiliary supercell:     3 x     3 x     3  =      27
superc: Number of atoms, orbitals, and projectors:    216   2808   3456

                     ====================================
                        Single-point calculation
                     ====================================

superc: Internal auxiliary supercell:     3 x     3 x     3  =      27
superc: Number of atoms, orbitals, and projectors:    216   2808   3456

outcell: Unit cell vectors (Ang):
        8.119535    0.000000    0.000000
        4.059964    7.031610    0.000000
       -0.007908    0.007670   10.002207

outcell: Cell vector modules (Ang)   :    8.119535    8.119535   10.002213
outcell: Cell angles (23,13,12) (deg):     89.9846     90.0453     59.9984
outcell: Cell volume (Ang**3)        :    571.0601
New_DM. Step:     1
Initializing Density Matrix...

iodm: Reading Density Matrix from files
New grid distribution:   1
           1       1:   40    1:   20    1:   27
           2       1:   40    1:   20   28:   54
           3       1:   40   21:   40    1:   27
           4       1:   40   21:   40   28:   54

InitMesh: MESH =    80 x    80 x   108 =      691200
InitMesh: (bp) =    40 x    40 x    54 =       86400
InitMesh: Mesh cutoff (required, used) =   300.000   322.224 Ry
ExtMesh (bp) on 0 =   128 x   108 x   111 =     1534464
New grid distribution:   2
           1       1:   40    1:   20    1:   31
           2       1:   40    1:   20   32:   54
           3       1:   40   21:   40    1:   31
           4       1:   40   21:   40   32:   54
New grid distribution:   3
           1       1:   40    1:   20    1:   31
           2       1:   40    1:   20   32:   54
           3       1:   40   21:   40    1:   31
           4       1:   40   21:   40   32:   54
Setting up quadratic distribution...
ExtMesh (bp) on 0 =   128 x   108 x   115 =     1589760
PhiOnMesh: Number of (b)points on node 0 =                24800
PhiOnMesh: nlist on node 0 =               733152

stepf: Fermi-Dirac step function

siesta: Program's energy decomposition (eV):
siesta: Ebs     =      -291.012247
siesta: Eions   =      1120.777630
siesta: Ena     =       159.426957
siesta: Ekin    =       280.303928
siesta: Enl     =        59.406004
siesta: DEna    =         9.085477
siesta: DUscf   =         0.729791
siesta: DUext   =         0.000000
siesta: Exc     =      -243.175268
siesta: eta*DQ  =         0.000000
siesta: Emadel  =         0.000000
siesta: Emeta   =         0.000000
siesta: Emolmec =         0.000000
siesta: Ekinion =         0.000000
siesta: Eharris =      -855.000740
siesta: Etot    =      -855.000740
siesta: FreeEng =      -855.001115

   scf: iscf   Eharris(eV)      E_KS(eV)   FreeEng(eV)    dDmax  Ef(eV)
   scf:    1     -855.0007     -855.0007     -855.0011  0.00000 -4.2822

SCF Convergence by dMax criterion
max |DM_out - DM_in|:     0.00000078
SCF cycle converged after    1 iterations
timer: Routine,Calls,Time,% =    IterSCF     1       1.798  37.82

Using DM_out to compute the final energy and forces

siesta: E_KS(eV) =             -855.0007

siesta: E_KS - E_eggbox =      -855.0007

siesta: Atomic forces (eV/Ang):
----------------------------------------
   Tot    0.002843    0.000056    0.000322
----------------------------------------
   Max    0.001274
   Res    0.000643    sqrt( Sum f_i^2 / 3N )
----------------------------------------
   Max    0.001274    constrained

Stress-tensor-Voigt (kbar):       -0.02        0.03        0.00        0.01       -0.01        0.01
(Free)E + p*V (eV/cell)     -855.0018
Target enthalpy (eV/cell)     -855.0011
Computing bands...
Writing WFSX for bands in transition.bands.WFSX
siesta: PDOS info: 
siesta: e1, e2, sigma, nhist:    -7.18 eV   -1.18 eV    0.03 eV   2000

siesta: Program's energy decomposition (eV):
siesta: Ebs     =      -291.012247
siesta: Eions   =      1120.777630
siesta: Ena     =       159.426957
siesta: Ekin    =       280.303928
siesta: Enl     =        59.406004
siesta: DEna    =         9.085477
siesta: DUscf   =         0.729791
siesta: DUext   =         0.000000
siesta: Exc     =      -243.175268
siesta: eta*DQ  =         0.000000
siesta: Emadel  =         0.000000
siesta: Emeta   =         0.000000
siesta: Emolmec =         0.000000
siesta: Ekinion =         0.000000
siesta: Eharris =      -855.000740
siesta: Etot    =      -855.000740
siesta: FreeEng =      -855.001115

siesta: Final energy (eV):
siesta:  Band Struct. =    -291.012247
siesta:       Kinetic =     280.303928
siesta:       Hartree =     726.393526
siesta:    Ext. field =       0.000000
siesta:   Exch.-corr. =    -243.175268
siesta:  Ion-electron =   -1708.210606
siesta:       Ion-ion =      89.687680
siesta:       Ekinion =       0.000000
siesta:         Total =    -855.000740

siesta: Atomic forces (eV/Ang):
siesta:      1    0.001224   -0.000044    0.000142
siesta:      2   -0.001082    0.000357    0.000474
siesta:      3    0.000671   -0.000770   -0.000615
siesta:      4    0.000636    0.000497    0.000157
siesta:      5    0.000485   -0.000868   -0.000217
siesta:      6    0.000555    0.001274    0.000509
siesta:      7    0.000864   -0.000324   -0.000534
siesta:      8   -0.000511   -0.000065    0.000407
siesta: ----------------------------------------
siesta:    Tot    0.002843    0.000056    0.000322

siesta: Stress tensor (static) (eV/Ang**3):
siesta:    -0.000014    0.000008    0.000005
siesta:     0.000008    0.000016   -0.000005
siesta:     0.000005   -0.000005    0.000002

siesta: Cell volume =        571.060053 Ang**3

siesta: Pressure (static):
siesta:                Solid            Molecule  Units
siesta:          -0.00000001          0.00000002  Ry/Bohr**3
siesta:          -0.00000125          0.00000171  eV/Ang**3
siesta:          -0.00199729          0.00273466  kBar
(Free)E+ p_basis*V_orbitals  =        -848.228734
(Free)Eharris+ p_basis*V_orbitals  =        -848.228734

siesta: Electric dipole (a.u.)  =    0.000000    0.000000    0.000001
siesta: Electric dipole (Debye) =    0.000000    0.000000    0.000003
>> End of run:   1-AUG-2019  16:23:09
Job completed
Siesta Version  : v4.0.2
Architecture    : intel-mkl
Compiler version: ifort (IFORT) 17.0.8 20180907
Compiler flags  : mpiifort  -w -mp1 -xSSE4.2 -ip -zero -O2 -DMPI -Vaxlib -lpthread 
PP flags        :  -O2 -zero -mp1 -xSSE4.2 -ipo -Vaxlib  
PARALLEL version

* Running in serial mode with MPI
>> Start of run:  23-AUG-2019  13:30:10

                           ***********************       
                           *  WELCOME TO SIESTA  *       
                           ***********************       

reinit: Reading from standard input
************************** Dump of input data file ****************************
SystemName transition
SystemLabel transition
%include struct.fdf
%block kgrid_Monkhorst_Pack
 4    0    0   0.0
 0    4    0   0.0
 0    0    1   0.0
%endblock kgrid_Monkhorst_Pack
#%block GeometryConstraints
#cellangle alpha beta gamma
#%endblock GeometryConstraints
MeshCutoff            300  Ry
MD.VariableCell       F
PAO.BasisSize         DZP
PAO.EnergyShift       0.01  Ry
XC.functional         GGA
XC.authors            PBE
ElectronicTemperature     50 meV
MD.TypeOfRun          CG
MD.NumCGsteps         0
MD.MaxForceTol        0.001  eV/Ang
MD.FinalTimeStep      1
MaxSCFIterations      600
DM.MixingWeight       0.8
DM.NumberPulay        8
DM.Tolerance          1.d-6
SolutionMethod       diagon
ParallelOverK         .true.
UseSaveData           .true.
MD.UseSaveXV          .true.
DM.UseSaveDM          .true.
MD.UseSaveCG          .true.
#==================================================
#     BAND & PDOS
#=================================================
#%block ProjectedDensityOfStates
#-7.18288585   -1.18288585     0.030 2000 eV
#%endblock ProjectedDensityOfStates
#
#%block PDOS.kgrid_Monkhorst_Pack
#100    0     0   0.0
# 0    100    0   0.0
# 0     0     1   0.0
#%endblock PDOS.kgrid_Monkhorst_Pack
#
#BandLinesScale    ReciprocalLatticeVectors
#
#%block BandLines
#1     0.00000    0.00000    0.00000    \Gamma
#150   0.66667    0.33333    0.00000    K
#90    0.50000    0.00000    0.00000    M
#130   0.00000    0.00000    0.00000    \Gamma
#%endblock BandLines
#
#WFS.Write.For.Bands    T
#==================================================
#     Charge & Properties
#=================================================
#SaveDeltaRho   T
#==================================================
#     Theromelectic Properties
#=================================================
%block BT.kgrid_Monkhorst_Pack
80     0     0   0.0
 0    80     0   0.0
 0     0     1   0.0
%endblock BT.kgrid_Monkhorst_Pack
BT.Symprec 0.0001
************************** End of input data file *****************************

reinit: -----------------------------------------------------------------------
reinit: System Name: transition
reinit: -----------------------------------------------------------------------
reinit: System Label: transition                                                  
reinit: -----------------------------------------------------------------------

initatom: Reading input for the pseudopotentials and atomic orbitals ----------
 Species number:            1  Label: Ge Atomic number:          32
Ground state valence configuration:   4s02  4p02
Reading pseudopotential information in formatted form from Ge.psf

Pseudopotential generated from a relativistic atomic calculation
There are spin-orbit pseudopotentials available
Spin-orbit interaction is not included in this calculation

Valence configuration for pseudopotential generation:
4s( 2.00) rc: 2.81
4p( 2.00) rc: 2.11
4d( 0.00) rc: 2.71
4f( 0.00) rc: 2.45
For Ge, standard SIESTA heuristics set lmxkb to 3
 (one more than the basis l, including polarization orbitals).
Use PS.lmax or PS.KBprojectors blocks to override.

<basis_specs>
===============================================================================
Ge                   Z=  32    Mass=  72.610        Charge= 0.17977+309
Lmxo=1 Lmxkb= 3    BasisType=split      Semic=F
L=0  Nsemic=0  Cnfigmx=4
          n=1  nzeta=2  polorb=0
            splnorm:   0.15000    
               vcte:    0.0000    
               rinn:    0.0000    
               qcoe:    0.0000    
               qyuk:    0.0000    
               qwid:   0.10000E-01
                rcs:    0.0000      0.0000    
            lambdas:    1.0000      1.0000    
L=1  Nsemic=0  Cnfigmx=4
          n=1  nzeta=2  polorb=1
            splnorm:   0.15000    
               vcte:    0.0000    
               rinn:    0.0000    
               qcoe:    0.0000    
               qyuk:    0.0000    
               qwid:   0.10000E-01
                rcs:    0.0000      0.0000    
            lambdas:    1.0000      1.0000    
-------------------------------------------------------------------------------
L=0  Nkbl=1  erefs: 0.17977+309
L=1  Nkbl=1  erefs: 0.17977+309
L=2  Nkbl=1  erefs: 0.17977+309
L=3  Nkbl=1  erefs: 0.17977+309
===============================================================================
</basis_specs>

atom: Called for Ge                    (Z =  32)

read_vps: Pseudopotential generation method:
read_vps: ATM3      Troullier-Martins                       
Total valence charge:    4.00000

xc_check: Exchange-correlation functional:
xc_check: GGA Perdew, Burke & Ernzerhof 1996
V l=0 = -2*Zval/r beyond r=  3.3093
V l=1 = -2*Zval/r beyond r=  3.3093
V l=2 = -2*Zval/r beyond r=  3.3093
V l=3 = -2*Zval/r beyond r=  3.3093
All V_l potentials equal beyond r=  2.7780
This should be close to max(r_c) in ps generation
All pots = -2*Zval/r beyond r=  3.3093

VLOCAL1: 99.0% of the norm of Vloc inside      5.625 Ry
VLOCAL1: 99.9% of the norm of Vloc inside     12.819 Ry
atom: Maximum radius for 4*pi*r*r*local-pseudopot. charge    3.30931
atom: Maximum radius for r*vlocal+2*Zval:    2.88417
GHOST: No ghost state for L =  0
GHOST: No ghost state for L =  1
GHOST: No ghost state for L =  2
GHOST: No ghost state for L =  3

KBgen: Kleinman-Bylander projectors: 
   l= 0   rc=  3.435772   el= -0.860281   Ekb=  2.253895   kbcos=  0.346706
   l= 1   rc=  3.797123   el= -0.286425   Ekb=  3.948998   kbcos=  0.081475
   l= 2   rc=  4.196478   el=  0.001966   Ekb=  0.640131   kbcos=  0.074523
   l= 3   rc=  4.411640   el=  0.003058   Ekb= -1.119155   kbcos= -0.012627

KBgen: Total number of  Kleinman-Bylander projectors:   16
atom: -------------------------------------------------------------------------

atom: SANKEY-TYPE ORBITALS:
atom: Selected multiple-zeta basis: split     

SPLIT: Orbitals with angular momentum L= 0

SPLIT: Basis orbitals for state 4s

SPLIT: PAO cut-off radius determined from an
SPLIT: energy shift=  0.010000 Ry

   izeta = 1
                 lambda =    1.000000
                     rc =    5.255364
                 energy =   -0.850149
                kinetic =    0.503784
    potential(screened) =   -1.353933
       potential(ionic) =   -3.838766

   izeta = 2
                 rmatch =    4.356837
              splitnorm =    0.150000
                 energy =   -0.762756
                kinetic =    0.731602
    potential(screened) =   -1.494358
       potential(ionic) =   -4.095989

SPLIT: Orbitals with angular momentum L= 1

SPLIT: Basis orbitals for state 4p

SPLIT: PAO cut-off radius determined from an
SPLIT: energy shift=  0.010000 Ry

   izeta = 1
                 lambda =    1.000000
                     rc =    7.094027
                 energy =   -0.277397
                kinetic =    0.776837
    potential(screened) =   -1.054234
       potential(ionic) =   -3.237146

   izeta = 2
                 rmatch =    5.321470
              splitnorm =    0.150000
                 energy =   -0.200106
                kinetic =    1.121672
    potential(screened) =   -1.321778
       potential(ionic) =   -3.691586

POLgen: Perturbative polarization orbital with L=  2

POLgen: Polarization orbital for state 4p

   izeta = 1
                     rc =    7.094027
                 energy =    0.355725
                kinetic =    1.134577
    potential(screened) =   -0.778852
       potential(ionic) =   -2.763244
atom: Total number of Sankey-type orbitals: 13

atm_pop: Valence configuration (for local Pseudopot. screening):
 4s( 2.00)                                                            
 4p( 2.00)                                                            
Vna: chval, zval:    4.00000   4.00000

Vna:  Cut-off radius for the neutral-atom potential:   7.094027

atom: _________________________________________________________________________

prinput: Basis input ----------------------------------------------------------

PAO.BasisType split     

%block ChemicalSpeciesLabel
    1   32 Ge                      # Species index, atomic number, species label
%endblock ChemicalSpeciesLabel

%block PAO.Basis                 # Define Basis set
Ge                    2                    # Species label, number of l-shells
 n=4   0   2                         # n, l, Nzeta 
   5.255      4.357   
   1.000      1.000   
 n=4   1   2 P   1                   # n, l, Nzeta, Polarization, NzetaPol
   7.094      5.321   
   1.000      1.000   
%endblock PAO.Basis

prinput: ----------------------------------------------------------------------

coor:   Atomic-coordinates input format  =     Fractional

ioxv: Reading coordinates and velocities from file
! Info in XV file prevails over previous structure input

siesta: Atomic coordinates (Bohr) and species
siesta:      3.90835   2.22452   9.91846  1        1
siesta:      7.74451   4.43930  11.27044  1        2
siesta:      7.74468   8.86869   9.91912  1        3
siesta:     11.58055  11.08335  11.27108  1        4
siesta:     15.41657   8.86875   9.91928  1        5
siesta:     15.41618   4.43915  11.27031  1        6
siesta:     11.58019   2.22458   9.91855  1        7
siesta:     19.25266  11.08347  11.27102  1        8

siesta: System type = slab      

initatomlists: Number of atoms, orbitals, and projectors:      8   104   128

siesta: ******************** Simulation parameters ****************************
siesta:
siesta: The following are some of the parameters of the simulation.
siesta: A complete list of the parameters used, including default values,
siesta: can be found in file out.fdf
siesta:
redata: Non-Collinear-spin run           =     F
redata: SpinPolarized (Up/Down) run      =     F
redata: Number of spin components        =     1
redata: Long output                      =     F
redata: Number of Atomic Species         =        1
redata: Charge density info will appear in .RHO file
redata: Write Mulliken Pop.              =     NO
redata: Matel table size (NRTAB)         =     1024
redata: Mesh Cutoff                      =   300.0000 Ry
redata: Net charge of the system         =     0.0000 |e|
redata: Min. number of SCF Iter          =        0
redata: Max. number of SCF Iter          =      600
redata: Mix DM or H after convergence    =     F
redata: Recompute H after scf cycle      =     F
redata: Performing Pulay mixing using    =     8 iterations
redata: Mix DM in first SCF step ?       =     F
redata: Write Pulay info on disk?        =     F
redata: Discard 1st Pulay DM after  kick =     F
redata: New DM Mixing Weight             =     0.8000
redata: New DM Occupancy tolerance       = 0.000000000001
redata: No kicks to SCF
redata: DM Mixing Weight for Kicks       =     0.5000
redata: DM Tolerance for SCF             =     0.000001
redata: Require (free) Energy convergence in SCF =     F
redata: DM (free)Energy tolerance for SCF =     0.000010 eV
redata: Require Harris convergence for SCF =     F
redata: DM Harris energy tolerance for SCF =     0.000010 eV
redata: Using Saved Data (generic)   =     T
redata: Use continuation files for DM    =     T
redata: Neglect nonoverlap interactions  =     F
redata: Method of Calculation            =     Diagonalization
redata: Divide and Conquer               =     T
redata: Electronic Temperature           =     0.0037  Ry
redata: Fix the spin of the system       =     F
redata: Dynamics option                  =     Single-point calculation
redata: ***********************************************************************
Total number of electrons:    32.000000
Total ionic charge:    32.000000

* ProcessorY, Blocksize:    1  24


* Orbital distribution balance (max,min):   104   104

k-point displ. along   1 input, could be:     0.00    0.50
k-point displ. along   2 input, could be:     0.00    0.50
 Kpoints in:           12 . Kpoints trimmed:           11

siesta: k-grid: Number of k-points =    11
siesta: k-grid: Cutoff (effective) =     5.001 Ang
siesta: k-grid: Supercell and displacements
siesta: k-grid:    4   0   0      0.000
siesta: k-grid:    0   4   0      0.000
siesta: k-grid:    0   0   1      0.000
Naive supercell factors:     3    3    3

superc: Internal auxiliary supercell:     3 x     3 x     3  =      27
superc: Number of atoms, orbitals, and projectors:    216   2808   3456

                     ====================================
                        Single-point calculation
                     ====================================

superc: Internal auxiliary supercell:     3 x     3 x     3  =      27
superc: Number of atoms, orbitals, and projectors:    216   2808   3456

outcell: Unit cell vectors (Ang):
        8.119535    0.000000    0.000000
        4.059964    7.031610    0.000000
       -0.007908    0.007670   10.002207

outcell: Cell vector modules (Ang)   :    8.119535    8.119535   10.002213
outcell: Cell angles (23,13,12) (deg):     89.9846     90.0453     59.9984
outcell: Cell volume (Ang**3)        :    571.0601
New_DM. Step:     1
Initializing Density Matrix...

iodm: Reading Density Matrix from files
New grid distribution:   1
           1       1:   40    1:   40    1:   54

InitMesh: MESH =    80 x    80 x   108 =      691200
InitMesh: (bp) =    40 x    40 x    54 =       86400
InitMesh: Mesh cutoff (required, used) =   300.000   322.224 Ry
ExtMesh (bp) on 0 =   128 x   128 x   138 =     2260992
PhiOnMesh: Number of (b)points on node 0 =                86400
PhiOnMesh: nlist on node 0 =              2828441

stepf: Fermi-Dirac step function

siesta: Program's energy decomposition (eV):
siesta: Ebs     =      -291.012248
siesta: Eions   =      1120.777630
siesta: Ena     =       159.426957
siesta: Ekin    =       280.303928
siesta: Enl     =        59.406004
siesta: DEna    =         9.085477
siesta: DUscf   =         0.729791
siesta: DUext   =         0.000000
siesta: Exc     =      -243.175268
siesta: eta*DQ  =         0.000000
siesta: Emadel  =         0.000000
siesta: Emeta   =         0.000000
siesta: Emolmec =         0.000000
siesta: Ekinion =         0.000000
siesta: Eharris =      -855.000740
siesta: Etot    =      -855.000740
siesta: FreeEng =      -855.001115

   scf: iscf   Eharris(eV)      E_KS(eV)   FreeEng(eV)    dDmax  Ef(eV)
   scf:    1     -855.0007     -855.0007     -855.0011  0.00000 -4.2822
timer: Routine,Calls,Time,% =    IterSCF     1       4.533  44.41
   scf:    2     -855.0007     -855.0007     -855.0011  0.00001 -4.2822
   scf:    3     -855.0007     -855.0007     -855.0011  0.00000 -4.2822

SCF Convergence by dMax criterion
max |DM_out - DM_in|:     0.00000017
SCF cycle converged after    3 iterations

Using DM_out to compute the final energy and forces

siesta: E_KS(eV) =             -855.0007

siesta: E_KS - E_eggbox =      -855.0007

siesta: Atomic forces (eV/Ang):
----------------------------------------
   Tot    0.002843    0.000056    0.000322
----------------------------------------
   Max    0.001272
   Res    0.000642    sqrt( Sum f_i^2 / 3N )
----------------------------------------
   Max    0.001272    constrained

Stress-tensor-Voigt (kbar):       -0.02        0.03        0.00        0.01       -0.01        0.01
(Free)E + p*V (eV/cell)     -855.0018
Target enthalpy (eV/cell)     -855.0011

siesta: Program's energy decomposition (eV):
siesta: Ebs     =      -291.012248
siesta: Eions   =      1120.777630
siesta: Ena     =       159.426957
siesta: Ekin    =       280.303928
siesta: Enl     =        59.406004
siesta: DEna    =         9.085477
siesta: DUscf   =         0.729791
siesta: DUext   =         0.000000
siesta: Exc     =      -243.175268
siesta: eta*DQ  =         0.000000
siesta: Emadel  =         0.000000
siesta: Emeta   =         0.000000
siesta: Emolmec =         0.000000
siesta: Ekinion =         0.000000
siesta: Eharris =      -855.000740
siesta: Etot    =      -855.000740
siesta: FreeEng =      -855.001115

siesta: Final energy (eV):
siesta:  Band Struct. =    -291.012248
siesta:       Kinetic =     280.303928
siesta:       Hartree =     726.393526
siesta:    Ext. field =       0.000000
siesta:   Exch.-corr. =    -243.175268
siesta:  Ion-electron =   -1708.210606
siesta:       Ion-ion =      89.687680
siesta:       Ekinion =       0.000000
siesta:         Total =    -855.000740

siesta: Atomic forces (eV/Ang):
siesta:      1    0.001226   -0.000048    0.000137
siesta:      2   -0.001079    0.000365    0.000474
siesta:      3    0.000669   -0.000766   -0.000605
siesta:      4    0.000628    0.000492    0.000155
siesta:      5    0.000487   -0.000862   -0.000220
siesta:      6    0.000553    0.001272    0.000516
siesta:      7    0.000862   -0.000330   -0.000535
siesta:      8   -0.000502   -0.000067    0.000401
siesta: ----------------------------------------
siesta:    Tot    0.002843    0.000056    0.000322

siesta: Stress tensor (static) (eV/Ang**3):
siesta:    -0.000014    0.000008    0.000005
siesta:     0.000008    0.000016   -0.000005
siesta:     0.000005   -0.000005    0.000002

siesta: Cell volume =        571.060053 Ang**3

siesta: Pressure (static):
siesta:                Solid            Molecule  Units
siesta:          -0.00000001          0.00000002  Ry/Bohr**3
siesta:          -0.00000125          0.00000169  eV/Ang**3
siesta:          -0.00199704          0.00270362  kBar
(Free)E+ p_basis*V_orbitals  =        -848.228734
(Free)Eharris+ p_basis*V_orbitals  =        -848.228734

siesta: Electric dipole (a.u.)  =    0.000000   -0.000000   -0.000001
siesta: Electric dipole (Debye) =    0.000000   -0.000000   -0.000002

Begining of SIESTA to BoltzTraP subroutine (siesta2bt)

siesta2bt: searching for rotation matrices (symmetry operations) via Spglib

siesta2bt:  number of symmetry operations found:    1

siesta2bt: allocating grid:    80 x    80 x     1 =        6400
Grid successfully allocated!

siesta2bt: finding irreducible k-points (IBZ)
IBZ successfully found!

siesta2bt:  number of irreducible k-points points found: 3202

siesta2bt: allocating IBZ grid...

siesta2bt: extracting IBZ k-points...

siesta2bt: calculating eigenenergies...

siesta2bt: writing files:  
 transition.intrans  Done!
 transition.struct  Done!
 transition.energy  Done!

End of SIESTA to BoltzTraP subroutine (siesta2bt)

timer: Elapsed wall time (sec) =      45.180
timer: CPU execution times (sec):

Routine            Calls   Time/call    Tot.time        %
siesta                 1      45.154      45.154   100.00
Setup                  1       0.157       0.157     0.35
bands                  2       7.228      14.456    32.01
KSV_init               1       0.000       0.000     0.00
IterGeom               1      28.877      28.877    63.95
state_init             1       0.249       0.249     0.55
hsparse                1       0.032       0.032     0.07
overlap                1       0.202       0.202     0.45
Setup_H0               1       5.267       5.267    11.66
naefs                  2       0.000       0.001     0.00
MolMec                 2       0.000       0.000     0.00
kinefsm                2       0.108       0.217     0.48
nlefsm                 2       0.630       1.259     2.79
DHSCF_Init             1       4.247       4.247     9.40
DHSCF1                 1       0.084       0.084     0.19
INITMESH               1       0.000       0.000     0.00
DHSCF2                 1       4.163       4.163     9.22
REMESH                 1       0.202       0.202     0.45
REORD                 16       0.002       0.032     0.07
PHION                  1       3.431       3.431     7.60
COMM_BSC              11       0.002       0.023     0.05
POISON                 5       0.190       0.948     2.10
fft                   10       0.085       0.849     1.88
IterSCF                3       4.505      13.515    29.93
setup_H                3       4.315      12.945    28.67
DHSCF                  4       5.575      22.299    49.38
DHSCF3                 4       4.308      17.234    38.17
rhoofd                 4       1.231       4.924    10.90
cellXC                 4       1.461       5.844    12.94
vmat                   4       1.401       5.603    12.41
compute_dm             3       0.184       0.553     1.22
diagon                 3       0.177       0.530     1.17
c-eigval            3235       0.005      14.584    32.30
c-buildHS           3235       0.001       4.837    10.71
cdiag               3268       0.003       9.916    21.96
cdiag1              3268       0.000       0.804     1.78
cdiag2              3268       0.001       3.604     7.98
cdiag3              3268       0.002       5.408    11.98
cdiag4              3268       0.000       0.015     0.03
c-eigvec              33       0.008       0.249     0.55
c-buildD              33       0.004       0.137     0.30
MIXER                  2       0.001       0.002     0.00
WriteDM                3       0.007       0.021     0.05
PostSCF                1       9.838       9.838    21.79
DHSCF4                 1       5.065       5.065    11.22
dfscf                  1       4.679       4.679    10.36
overfsm                1       0.026       0.026     0.06
state_analysis         1       0.001       0.001     0.00
siesta_move            1       0.000       0.000     0.00
siesta_analysis        1      16.111      16.111    35.68
optical                1       0.000       0.000     0.00
  
>> End of run:  23-AUG-2019  13:30:55
Job completed
